                               Psi4 1.3.2 release

  ==> Input File <==

--------------------------------------------------------------------------
memory 12 gb
molecule meoh {
noreorient
nocom
0 1
C     1.0710    -0.2620    -0.0070
C     1.9170     0.9160    -0.4230
O     1.5020     1.3070    -1.7150
H     0.0100     0.0150     0.0010
H     1.2000    -1.0900    -0.7140
H     1.3500    -0.6100     0.9940
H     2.9840     0.6330    -0.4120
H     1.7940     1.7400     0.3030
H     2.0390     2.0580    -1.9840
}
set {
basis aug-cc-pV(D+d)Z
}
E,wfn = prop('PW6B95' , properties = ['GRID_ESP', 'GRID_FIELD'], return_wfn=True)
--------------------------------------------------------------------------

    Molecular point group: c1

    Geometry (in Angstrom), charge = 0, multiplicity = 1:

       Center              X                  Y                   Z               Mass
    ------------   -----------------  -----------------  -----------------  -----------------
         C            1.071000000000    -0.262000000000    -0.007000000000    12.000000000000
         C            1.917000000000     0.916000000000    -0.423000000000    12.000000000000
         O            1.502000000000     1.307000000000    -1.715000000000    15.994914619570
         H            0.010000000000     0.015000000000     0.001000000000     1.007825032230
         H            1.200000000000    -1.090000000000    -0.714000000000     1.007825032230
         H            1.350000000000    -0.610000000000     0.994000000000     1.007825032230
         H            2.984000000000     0.633000000000    -0.412000000000     1.007825032230
         H            1.794000000000     1.740000000000     0.303000000000     1.007825032230
         H            2.039000000000     2.058000000000    -1.984000000000     1.007825032230

  Charge       = 0
  Multiplicity = 1
  Basis Set: AUG-CC-PV(D+D)Z
    Blend: AUG-CC-PV(D+D)Z
  Basis Set: (AUG-CC-PV(D+D)Z AUX)
    Blend: AUG-CC-PVDZ-JKFIT

    Orbital Energies [Eh]
    ---------------------

    Doubly Occupied:

       1A    -19.316781     2A    -10.352585     3A    -10.294936
       4A     -1.059974     5A     -0.775098     6A     -0.631536
       7A     -0.541822     8A     -0.484192     9A     -0.424621
      10A     -0.398632    11A     -0.380914    12A     -0.353053
      13A     -0.294091

  @DF-RKS Final Energy:  -155.24174330091577

   => Energetics <=

    Nuclear Repulsion Energy =             82.0738223978990931
    One-Electron Energy =                -372.2874991801892293
    Two-Electron Energy =                 151.0513871538309445
    DFT Exchange-Correlation Energy =     -16.0794536724565980
    Empirical Dispersion Energy =           0.0000000000000000
    VV10 Nonlocal Energy =                  0.0000000000000000
    Total Energy =                       -155.2417433009157719

  Dipole Moment: [D]
     X:     1.1293      Y:     0.6562      Z:     0.8570     Total:     1.5622

*** Psi4 exiting successfully. Buy a developer a beer!
