                               Psi4 1.3.2 release

  ==> Input File <==

--------------------------------------------------------------------------
memory 12 gb
molecule meoh {
noreorient
nocom
0 1
C     1.0590    -0.2840     0.0080
C     1.9150     0.8810    -0.4460
O     1.5380     1.3760    -1.7120
H    -0.0010    -0.0050     0.0030
H     1.1860    -1.1470    -0.6600
H     1.3320    -0.6070     1.0200
H     2.9820     0.5980    -0.4250
H     1.7990     1.7260     0.2450
H     1.6370     0.6540    -2.3420
}
set {
  basis aug-cc-pV(D+d)Z
  pcm true
  pcm_scf_type total
}
pcm = {
  Units = Angstrom
  Medium {
  SolverType = CPCM # IEFPCM| CPCM
  Solvent = water
  }
  Cavity {
  RadiiSet = Bondi # Bondi| UFF| Allinger
  Type = GePol
  Scaling = True # radii for the spheres will be scaled by 1.2
  Area = 0.3
  Mode = Implicit
  }
}
E,wfn = prop('PW6B95' , properties = ['GRID_ESP', 'GRID_FIELD'], return_wfn=True)
--------------------------------------------------------------------------

    Molecular point group: c1

    Geometry (in Angstrom), charge = 0, multiplicity = 1:

       Center              X                  Y                   Z               Mass
    ------------   -----------------  -----------------  -----------------  -----------------
         C            1.059000000000    -0.284000000000     0.008000000000    12.000000000000
         C            1.915000000000     0.881000000000    -0.446000000000    12.000000000000
         O            1.538000000000     1.376000000000    -1.712000000000    15.994914619570
         H           -0.001000000000    -0.005000000000     0.003000000000     1.007825032230
         H            1.186000000000    -1.147000000000    -0.660000000000     1.007825032230
         H            1.332000000000    -0.607000000000     1.020000000000     1.007825032230
         H            2.982000000000     0.598000000000    -0.425000000000     1.007825032230
         H            1.799000000000     1.726000000000     0.245000000000     1.007825032230
         H            1.637000000000     0.654000000000    -2.342000000000     1.007825032230

  Charge       = 0
  Multiplicity = 1
  Basis Set: AUG-CC-PV(D+D)Z
    Blend: AUG-CC-PV(D+D)Z
  Basis Set: (AUG-CC-PV(D+D)Z AUX)
    Blend: AUG-CC-PVDZ-JKFIT

    Orbital Energies [Eh]
    ---------------------

    Doubly Occupied:

       1A    -19.319817     2A    -10.348852     3A    -10.293944
       4A     -1.062531     5A     -0.769000     6A     -0.644216
       7A     -0.523881     8A     -0.470792     9A     -0.451730
      10A     -0.396589    11A     -0.385283    12A     -0.344161
      13A     -0.298529

  @DF-RKS Final Energy:  -155.24781025368281

   => Energetics <=

    Nuclear Repulsion Energy =             81.8956710703068751
    One-Electron Energy =                -371.9157052402434260
    Two-Electron Energy =                 150.8599489532306563
    DFT Exchange-Correlation Energy =     -16.0804466439757725
    Empirical Dispersion Energy =           0.0000000000000000
    VV10 Nonlocal Energy =                  0.0000000000000000
    PCM Polarization Energy =              -0.0072783930011750
    Total Energy =                       -155.2478102536828146

  Dipole Moment: [D]
     X:     0.6128      Y:    -2.0148      Z:     0.5254     Total:     2.1705

*** Psi4 exiting successfully. Buy a developer a beer!
